# vtk DataFile Version 3.0
vtk output
ASCII
DATASET POLYDATA
POINTS 8102 float
-20.3056 18.3366 -87.75 -20.2245 18.2518 -87.7608 -20.1934 18.2254 -87.7667 
-20.1845 18.2145 -87.7684 -20.1458 18.1756 -87.7613 -20.0984 18.1243 -87.7408 
-20.0984 18.1243 -87.7408 -20.0938 18.1205 -87.7391 -19.9164 18.0073 -87.6434 
-19.8217 17.9603 -87.5999 -19.766 17.9302 -87.5706 -19.6595 17.8913 -87.5256 
-19.6152 17.8688 -87.5122 -19.5384 17.8406 -87.4938 -19.4761 17.8155 -87.4856 
-19.3958 17.7915 -87.4793 -19.2959 17.754 -87.4786 -19.2619 17.7451 -87.4794 
-19.1459 17.6904 -87.4744 -19.0263 17.609 -87.4428 -19.0237 17.6076 -87.4422 
-18.9868 17.5805 -87.4325 -18.859 17.4844 -87.3823 -18.7593 17.4271 -87.3159 
-18.4329 17.2897 -87.1139 -18.4155 17.2819 -87.0962 -18.3691 17.2724 -87.0501 
-18.3682 17.2722 -87.0494 -18.2586 17.2441 -86.9584 -18.2318 17.2347 -86.9385 
-18.2206 17.2304 -86.9322 -18.0998 17.1723 -86.8675 -18.0441 17.1481 -86.8309 
-17.963 17.115 -86.7852 -17.887 17.0632 -86.7198 -17.7767 16.9869 -86.6342 
-17.7599 16.979 -86.6214 -17.4858 16.7878 -86.4094 -17.4594 16.7684 -86.3919 
-17.4425 16.7584 -86.3821 -17.4413 16.7579 -86.3812 -17.2388 16.6733 -86.279 
-17.1996 16.6609 -86.2634 -17.0644 16.6029 -86.194 -17.0334 16.5855 -86.1746 
-16.9516 16.538 -86.1121 -16.8953 16.4983 -86.0573 -16.893 16.497 -86.0554 
-16.8728 16.4831 -86.0378 -16.8378 16.4507 -86.011 -16.8129 16.4258 -85.9915 
-16.7295 16.3706 -85.9277 -16.7114 16.3538 -85.9141 -16.5886 16.2714 -85.8264 
-16.5003 16.1982 -85.7605 -16.3938 16.1187 -85.6708 -16.3366 16.0728 -85.6093 
-16.3155 16.0614 -85.5916 -16.1828 16.0013 -85.5334 -16.1808 15.9998 -85.5326 
-16.0747 15.9117 -85.422 -15.826 15.6793 -85.1536 -15.8257 15.679 -85.1532 
-15.7468 15.6056 -85.0343 -15.7423 15.5997 -85.0276 -15.7196 15.57 -84.9848 
-15.7182 15.5692 -84.9831 -15.6629 15.5392 -84.913 -15.6546 15.5363 -84.9045 
-15.5471 15.497 -84.8453 -15.3007 15.4572 -84.6307 -15.2655 15.4415 -84.5957 
-15.2511 15.4367 -84.5834 -15.176 15.4075 -84.4988 -15.1329 15.3852 -84.4389 
-15.1079 15.368 -84.3968 -15.0573 15.3115 -84.2846 -15.0139 15.2518 -84.1845 
-14.9375 15.1663 -84.0465 -14.9367 15.1653 -84.0455 -14.8967 15.1186 -83.9961 
-14.8405 15.0841 -83.937 -14.8376 15.0818 -83.9349 -14.6999 15.006 -83.8346 
-14.6409 14.9619 -83.7888 -14.6292 14.9532 -83.7791 -14.5774 14.9213 -83.7389 
-14.5142 14.8781 -83.6772 -14.4906 14.8608 -83.6505 -14.4184 14.8253 -83.5753 
-14.4082 14.821 -83.5627 -14.3706 14.8069 -83.5115 -14.3704 14.8068 -83.5112 
-14.3399 14.7972 -83.4779 -14.337 14.7959 -83.4747 -14.2501 14.7564 -83.3774 
-14.2498 14.7563 -83.3771 -14.2094 14.7436 -83.346 -14.2093 14.7436 -83.346 
-14.182 14.7311 -83.3248 -14.1638 14.7235 -83.3122 -14.133 14.7114 -83.2872 
-14.1159 14.7034 -83.2765 -14.1111 14.7016 -83.2722 -14.072 14.6897 -83.2411 
-14.0231 14.668 -83.2027 -14.0025 14.6554 -83.1849 -13.8649 14.5882 -83.1009 
-13.8647 14.5881 -83.1007 -13.8549 14.5829 -83.088 -13.7231 14.5157 -82.9744 
-13.7231 14.5157 -82.9744 -13.7212 14.5144 -82.9724 -13.5017 14.3788 -82.7699 
-13.4919 14.3712 -82.7586 -13.474 14.3581 -82.7331 -13.3878 14.3199 -82.6067 
-13.2985 14.2873 -82.4663 -13.2364 14.2527 -82.3693 -13.234 14.2518 -82.3665 
-13.1868 14.2346 -82.312 -13.1714 14.2288 -82.2903 -13.1603 14.2227 -82.2749 
-13.1173 14.2008 -82.219 -13.0932 14.1905 -82.1946 -13.0929 14.1903 -82.1942 
-13.0835 14.1855 -82.183 -13.076 14.1808 -82.1747 -13.0717 14.1777 -82.1702 
-13.0607 14.1704 -82.159 -13.0502 14.1636 -82.1487 -13.0362 14.156 -82.1353 
-12.9416 14.0873 -82.0478 -12.8228 14.022 -81.9533 -12.7702 13.9694 -81.9168 
-12.7247 13.9336 -81.8881 -12.7215 13.9307 -81.8856 -12.7141 13.9248 -81.8804 
-12.5751 13.8283 -81.7696 -12.5383 13.8036 -81.7366 -12.389 13.6897 -81.6258 
-12.3216 13.6245 -81.566 -12.2672 13.556 -81.5022 -12.1534 13.3768 -81.3445 
-12.0465 13.2322 -81.217 -11.9506 13.1752 -81.1432 -11.8689 13.1378 -81.0848 
-11.6418 13.0668 -80.965 -11.6353 13.0645 -80.9613 -11.4921 13.0254 -80.887 
-11.33 13.006 -80.7927 -11.2198 12.9982 -80.7372 -11.1959 12.9984 -80.7267 
-11.092 12.9886 -80.6857 -11.049 12.9569 -80.6223 -10.9223 12.8591 -80.4838 
-10.8066 12.7631 -80.4084 -10.8007 12.7593 -80.4054 -10.643 12.6585 -80.3249 
-10.4493 12.5803 -80.2289 -10.3484 12.5559 -80.1848 -10.2213 12.5174 -80.1161 
-9.93672 12.5331 -80.0628 -9.86443 12.5338 -80.0439 -9.81753 12.5301 -80.0321 
-9.71569 12.5058 -79.9855 -9.68824 12.4977 -79.9759 -9.50579 12.4251 -79.9129 
-9.36383 12.3645 -79.8607 -9.10822 12.2876 -79.7942 -8.85723 12.2321 -79.7217 
-8.8062 12.2223 -79.7145 -8.76821 12.2124 -79.7138 -8.76422 12.2117 -79.7139 
-8.61554 12.1936 -79.6784 -8.61461 12.1935 -79.6783 -8.58228 12.1881 -79.6739 
-8.56167 12.1856 -79.6709 -8.37685 12.1783 -79.6302 -8.20513 12.1571 -79.6062 
-8.12346 12.1591 -79.5898 -7.95676 12.1329 -79.5563 -7.88621 12.1279 -79.533 
-7.72098 12.0952 -79.4829 -7.66525 12.0862 -79.4551 -7.49027 12.0756 -79.3685 
-7.47999 12.0764 -79.363 -7.40606 12.0779 -79.3311 -7.30083 12.0861 -79.2678 
-7.24264 12.0982 -79.2306 -6.95072 12.1374 -79.0557 -6.9258 12.1463 -79.0413 
-6.87732 12.1617 -79.0145 -6.66965 12.1942 -78.8931 -6.64992 12.1982 -78.8826 
-6.62698 12.1999 -78.8706 -6.62669 12.2 -78.8705 -6.55383 12.2025 -78.8326 
-6.55315 12.2025 -78.8321 -6.52535 12.2038 -78.8132 -6.44373 12.2006 -78.7798 
-6.29035 12.1922 -78.7 -6.26672 12.1947 -78.6898 -6.18532 12.2131 -78.6498 
-6.14985 12.2172 -78.638 -6.0257 12.2431 -78.5968 -6.02551 12.2431 -78.5968 
-6.00124 12.2492 -78.5911 -5.89385 12.2708 -78.5544 -5.69834 12.3235 -78.5056 
-5.61499 12.353 -78.4839 -5.36806 12.4295 -78.4591 -5.35082 12.4344 -78.4565 
-5.13547 12.4802 -78.4587 -4.87149 12.5273 -78.4596 -4.84611 12.5347 -78.4588 
-4.80633 12.5417 -78.4549 -4.66006 12.5723 -78.4253 -4.54967 12.5832 -78.3924 
-4.54386 12.5837 -78.3895 -4.39466 12.6135 -78.3186 -4.11481 12.604 -78.1858 
-4.05818 12.5982 -78.1557 -3.81655 12.5586 -78.0303 -3.75994 12.5538 -77.9953 
-3.61114 12.5366 -77.9238 -3.60221 12.5346 -77.9181 -3.49145 12.5275 -77.8636 
-3.46924 12.5256 -77.8484 -3.36428 12.5169 -77.7968 -3.30578 12.5037 -77.7595 
-3.14605 12.5126 -77.6651 -3.11219 12.5144 -77.6399 -3.02631 12.5227 -77.5977 
-2.88708 12.5511 -77.5334 -2.77534 12.5964 -77.4688 -2.72182 12.6072 -77.4474 
-2.59148 12.638 -77.384 -2.56878 12.6444 -77.3657 -2.52335 12.6601 -77.3356 
-2.37306 12.7221 -77.303 -2.16275 12.7465 -77.218 -2.14777 12.7453 -77.2079 
-1.84883 12.8221 -77.0204 -1.82708 12.8291 -77.0109 -1.78956 12.8435 -77.0028 
-1.70314 12.8707 -76.9893 -1.60504 12.9302 -76.9535 -1.4714 13.0189 -76.9359 
-1.3825 13.1193 -76.9301 -1.25974 13.2667 -76.9376 -1.22881 13.2977 -76.9374 
-1.20877 13.3263 -76.9361 -1.15972 13.3831 -76.9419 -1.09967 13.452 -76.9391 
-0.943755 13.6129 -76.9628 -0.892109 13.6623 -76.973 -0.821798 13.727 -76.9761 
-0.666783 13.8521 -76.9929 -0.659056 13.8551 -76.9952 -0.51049 13.8925 -76.9919 
-0.130639 13.932 -76.9795 -0.127852 13.9329 -76.9783 -0.043555 13.9612 -76.9408 
-0.0390288 13.9628 -76.9398 -0.0381906 13.9631 -76.9397 0.170524 14.0356 -76.9058 
0.171848 14.0367 -76.9055 0.335965 14.1642 -76.8729 0.366915 14.2039 -76.864 
0.407588 14.2438 -76.8411 0.463513 14.3123 -76.8351 0.465964 14.3168 -76.8345 
0.552949 14.4543 -76.8275 0.594703 14.4981 -76.8278 0.61108 14.5115 -76.83 
0.704762 14.5722 -76.836 0.712445 14.5776 -76.8354 0.816958 14.631 -76.8235 
0.878232 14.6519 -76.8129 0.911548 14.6629 -76.8055 1.10318 14.7571 -76.7504 
1.12092 14.7647 -76.7464 1.1605 14.7865 -76.749 1.35536 14.8801 -76.7748 
1.45384 14.9305 -76.7669 1.5317 14.9967 -76.7534 1.61815 15.0561 -76.7171 
1.6534 15.0853 -76.7004 1.70071 15.1284 -76.6747 1.73955 15.1687 -76.652 
1.79711 15.2314 -76.6212 1.79757 15.232 -76.621 1.92911 15.354 -76.5389 
1.94884 15.3753 -76.5236 2.01975 15.4426 -76.4829 2.0804 15.4871 -76.4509 
2.20541 15.6085 -76.3873 2.2933 15.6835 -76.3482 2.30645 15.6968 -76.3417 
2.47327 15.8445 -76.2216 2.59893 15.9276 -76.15 2.72519 16.0377 -76.0689 
2.8153 16.0991 -76.006 2.83132 16.114 -75.9935 2.85876 16.1382 -75.9745 
2.95276 16.2354 -75.8927 2.97668 16.2528 -75.8728 3.05059 16.3077 -75.8132 
3.12416 16.3718 -75.7473 3.16611 16.4076 -75.7199 3.16758 16.4091 -75.7188 
3.23031 16.4462 -75.6576 3.27405 16.4798 -75.6217 3.30412 16.5193 -75.5998 
3.59315 16.8525 -75.2913 3.61676 16.8776 -75.2699 3.64941 16.9056 -75.2422 
3.86883 17.0593 -75.0739 3.86974 17.0598 -75.0733 3.92553 17.0888 -75.0356 
3.92572 17.0889 -75.0355 3.97168 17.1182 -75.0039 3.97509 17.1207 -75.0015 
4.09348 17.2085 -74.9185 4.10551 17.219 -74.9117 4.18729 17.2807 -74.8762 
4.35907 17.4528 -74.8556 4.37693 17.4745 -74.8521 4.39493 17.4951 -74.8431 
4.60761 17.6972 -74.823 4.62352 17.7082 -74.8244 4.63984 17.7192 -74.8257 
4.6809 17.7471 -74.8253 4.77907 17.8188 -74.8191 4.81483 17.8432 -74.8207 
4.95113 17.8928 -74.8135 4.95944 17.8951 -74.8127 5.18252 17.9659 -74.8018 
5.24816 17.9807 -74.7871 5.28201 17.9912 -74.7732 5.28725 17.9921 -74.7707 
5.30241 17.9948 -74.7693 5.42623 18.0081 -74.7512 5.42635 18.0082 -74.7512 
5.45487 18.0136 -74.7471 5.57585 18.0627 -74.7354 5.61263 18.0803 -74.7323 
5.70764 18.1199 -74.723 5.96834 18.2594 -74.6911 6.03362 18.301 -74.6852 
6.18533 18.4178 -74.6667 6.19146 18.4238 -74.6659 6.21944 18.4464 -74.6623 
6.28652 18.5012 -74.6561 6.41021 18.6256 -74.6362 6.5184 18.7102 -74.6309 
6.52663 18.7149 -74.6306 6.55594 18.7347 -74.6271 6.57012 18.7442 -74.6288 
6.57014 18.7442 -74.6288 6.57528 18.7468 -74.6294 6.84377 18.856 -74.6362 
6.84625 18.8572 -74.6368 7.1958 18.9847 -74.6693 7.28335 19.024 -74.6856 
7.31696 19.0364 -74.6922 7.33144 19.0445 -74.6956 7.34292 19.0517 -74.6992 
7.38471 19.0799 -74.7161 7.45331 19.1244 -74.7356 7.60715 19.274 -74.7847 
7.67964 19.3384 -74.795 7.7102 19.3631 -74.7991 7.82941 19.4898 -74.8265 
7.93853 19.5939 -74.8362 7.95207 19.6058 -74.8367 7.96949 19.624 -74.8389 
8.05767 19.7042 -74.8522 8.14601 19.7784 -74.8287 8.21402 19.8316 -74.8187 
8.27805 19.8848 -74.8081 8.33552 19.925 -74.7942 8.33649 19.9256 -74.7944 
[...]
CELL_DATA 8
FIELD FieldData 2
Length 1 8 double
140.794 158.277 164.572 115.57 96.0552 65.5154 60.3245 118.006 
Tortuosity 1 8 double
0.791625 0.768363 1.0061 0.212558 0.168189 0.154157 0.153959 0.977522 
POINT_DATA 8102
FIELD FieldData 10
MaximumInscribedSphereRadius 1 8102 double
0.65441 0.686108 0.698112 0.70294 0.709675 0.713722 0.713723 0.713773 0.712839 
0.720039 0.729962 0.750495 0.756959 0.77346 0.786445 0.809583 0.837935 0.847978 
0.871874 0.863536 0.863359 0.861005 0.847029 0.834951 0.83256 0.83623 0.839349 
0.839434 0.849881 0.853069 0.853592 0.857491 0.854244 0.839037 0.810432 0.768664 
0.761445 0.723891 0.723638 0.722418 0.722316 0.726185 0.729548 0.744057 0.749571 
0.765894 0.779797 0.780137 0.782679 0.786005 0.78808 0.787769 0.786555 0.777568 
0.785009 0.813096 0.827155 0.829526 0.83679 0.83654 0.792855 0.778869 0.779045 
0.822915 0.826055 0.843037 0.843322 0.854911 0.855574 0.855938 0.876156 0.881316 
0.882072 0.881667 0.882048 0.880646 0.880521 0.88339 0.896445 0.896533 0.900848 
0.900586 0.90049 0.902691 0.910439 0.911853 0.918536 0.929509 0.934274 0.94311 
0.945122 0.95348 0.953533 0.960167 0.960948 0.984574 0.984665 0.995954 0.99598 
1.00249 1.00659 1.01471 1.01665 1.01697 1.01794 1.01626 1.01441 1.00003 
0.999974 0.996334 0.965281 0.965278 0.964685 0.939099 0.939091 0.938537 0.931192 
0.939469 0.950646 0.951209 0.962395 0.967334 0.969703 0.981036 0.987274 0.987379 
0.990552 0.992188 0.992735 0.993943 0.994867 0.995389 0.992907 0.979872 0.967045 
0.956785 0.955881 0.954137 0.922712 0.914547 0.904418 0.907395 0.910406 0.924349 
0.91866 0.895305 0.881826 0.864326 0.864865 0.876172 0.916159 0.949386 0.957418 
0.992309 0.973662 0.924508 0.89665 0.896036 0.879602 0.884487 0.892971 0.913472 
0.902629 0.908627 0.913701 0.923098 0.923688 0.921725 0.926083 0.954718 1.00037 
1.01178 1.02063 1.02141 1.02391 1.02393 1.02452 1.02486 1.02888 1.04266 
1.04933 1.0561 1.05688 1.05668 1.0559 1.06098 1.06119 1.0596 1.05408 
1.04925 1.07211 1.07583 1.08439 1.13229 1.13919 1.1461 1.14619 1.17002 
1.17023 1.1787 1.18822 1.1834 1.18083 1.16894 1.15845 1.12195 1.12189 
1.11428 1.07836 1.02131 0.995713 0.928911 0.926574 0.889569 0.856609 0.854408 
0.848825 0.83114 0.811012 0.809213 0.7657 0.716688 0.717031 0.744438 0.756584 
0.793448 0.795471 0.814945 0.815517 0.812672 0.803016 0.773605 0.768367 0.756095 
0.735443 0.731343 0.729045 0.725036 0.724197 0.717898 0.66766 0.60181 0.597292 
0.525796 0.525616 0.523137 0.517437 0.508478 0.509923 0.516961 0.527749 0.530446 
0.533462 0.536171 0.536018 0.532999 0.528553 0.521385 0.498766 0.497408 0.468819 
0.453729 0.454686 0.483643 0.485009 0.48541 0.58513 0.58599 0.692658 0.716397 
0.748292 0.794174 0.796279 0.861998 0.873345 0.875451 0.884764 0.885201 0.889525 
0.891221 0.89283 0.906965 0.909578 0.918824 0.98081 1.01308 1.03218 1.04356 
1.04844 1.05571 1.06066 1.05938 1.05938 1.04934 1.04863 1.04282 1.04036 
1.03382 1.03619 1.03548 1.03427 1.04697 1.06982 1.08948 1.09193 1.09554 
1.11099 1.11545 1.12927 1.14981 1.16167 1.16214 1.17703 1.18232 1.16747 
1.12071 1.12035 1.11843 1.13158 1.13172 1.1404 1.14042 1.14692 1.14761 
1.17173 1.17383 1.18225 1.18585 1.1875 1.19096 1.2148 1.21504 1.21549 
1.21649 1.22122 1.22345 1.21022 1.20999 1.2024 1.20182 1.20291 1.20258 
1.20104 1.18704 1.18703 1.18338 1.1494 1.13919 1.11464 1.06947 1.06694 
1.06081 1.06037 1.05802 1.05202 1.04868 1.04623 1.04542 1.04162 1.03913 
1.03913 1.03781 0.984118 0.983839 0.989793 1.00414 1.00945 1.01008 1.01015 
1.01107 1.00933 1.00131 1.00352 1.00474 1.00658 1.01865 1.0204 1.02215 
1.02826 1.02246 1.0188 1.01298 1.00545 1.00517 0.984143 0.95293 0.952924 
0.952419 0.887491 0.871061 0.877601 0.888787 0.888846 0.89614 0.907153 0.911318 
0.898245 0.897709 0.890009 0.890856 0.894855 0.895691 0.910549 0.911972 0.912298 
0.911827 0.903686 0.898399 0.892571 0.893463 0.901486 0.918908 0.925617 0.93046 
0.930175 0.914747 0.914117 0.903176 0.903173 0.902464 0.896268 0.89636 0.897527 
0.902716 0.909617 0.910647 0.917188 0.91743 0.922249 0.920112 0.917434 0.893661 
0.88994 0.870089 0.868065 0.841611 0.843119 0.849798 0.881686 0.8839 0.896766 
0.930415 0.930543 0.953152 0.960295 0.962359 0.965193 0.966636 0.96652 0.96472 
0.956197 0.954941 0.948732 0.945212 0.940217 0.971371 0.972872 0.994821 1.00618 
1.02738 1.02747 1.05026 1.05292 1.05241 1.05362 1.05145 1.04855 1.04799 
1.04793 1.04107 1.0267 1.02072 1.02494 1.04872 1.04852 1.03852 1.0298 
1.02715 1.02899 1.03532 1.03586 1.04895 1.04904 1.06107 1.06168 1.08263 
1.09979 1.11968 1.12337 1.12396 1.12717 1.12564 1.11419 1.06163 1.06327 
1.03921 1.03365 1.0149 1.01929 1.01948 1.02982 1.03012 1.0316 1.03754 
1.05102 1.05129 1.05294 1.05328 1.05147 1.04993 1.02995 1.02995 1.02895 
1.02075 1.01911 1.01164 1.00128 1.00492 1.00813 1.00846 1.00741 1.00851 
1.00845 1.00931 1.02593 1.04505 1.04559 1.04103 1.03854 1.02508 1.02712 
1.03792 1.04185 1.04998 1.05001 1.05427 1.05475 1.05483 1.0547 1.05416 
1.05245 1.02897 1.02712 1.02225 1.0165 0.994546 0.992093 0.992841 0.992703 
0.991376 0.975046 0.965051 0.960277 0.920599 0.916176 0.874185 0.866094 0.864535 
0.848741 0.829729 0.828725 0.827795 0.806061 0.798756 0.793015 0.758906 0.75891 
0.759116 0.759174 0.766324 0.766816 0.776134 0.775002 0.761185 0.73953 0.713679 
0.712463 0.712202 0.713319 0.720041 0.717429 0.722228 0.726623 0.728774 0.728861 
0.730596 0.727809 0.720419 0.715224 0.67368 0.557803 0.534721 0.538359 0.538624 
0.539982 0.544301 0.555107 0.594277 0.60585 0.686401 0.687468 0.725466 0.739212 
0.745191 0.752312 0.760814 0.783692 0.792318 0.785163 0.78203 0.756694 0.756523 
0.758797 0.758803 0.774024 0.774118 0.797483 0.836294 0.875795 0.884323 0.887339 
0.889656 0.887477 0.886109 0.88743 0.887809 0.893855 0.895955 0.896531 0.902979 
0.907756 0.906438 0.902753 0.888406 0.882761 0.870228 0.870154 0.861059 0.848927 
0.842267 0.845623 0.889684 0.891404 0.92279 0.941285 0.956291 0.958872 0.995497 
1.03103 1.03786 1.06585 1.07218 1.07438 1.0821 1.08224 1.07922 1.07289 
1.07061 1.05419 1.05229 1.05267 1.05535 1.06988 1.07129 1.07397 1.07522 
1.10082 1.10215 1.10218 1.10941 1.11693 1.11692 1.11356 1.09044 1.09042 
1.0856 1.04827 1.02298 1.02296 1.0215 1.01041 1.01037 1.00958 1.01093 
1.01008 1.01008 1.01037 1.00927 1.00785 1.00785 1.00715 1.00451 1.00374 
1.00274 1.00225 1.00131 1.0009 1.00113 0.997544 0.992436 0.992488 0.993997 
0.997665 0.99773 0.994673 0.994363 0.984878 0.975123 0.961415 0.953776 0.923362 
0.905667 0.889481 0.873668 0.852503 0.852334 0.849818 0.846481 0.845963 0.846944 
0.846937 0.844094 0.848693 0.851892 0.854741 0.85647 0.852052 0.849193 0.837102 
0.831181 0.807942 0.761858 0.753038 0.722763 0.679743 0.632934 0.609241 0.672331 
0.71603 0.74129 0.748466 0.748867 0.78195 0.785453 0.787691 0.79745 0.816954 
0.828906 0.855742 0.857836 0.867645 0.867592 0.869707 0.869507 0.869374 0.867937 
0.867083 0.866311 0.866144 0.864028 0.873802 0.873849 0.879679 0.884339 0.88671 
0.887561 0.895915 0.897372 0.897834 0.899105 0.916166 0.916167 0.916301 0.907116 
0.907008 0.892872 0.886039 0.87344 0.873456 0.875403 0.877927 0.880173 0.894035 
0.897615 0.904398 0.909845 0.920949 0.930259 0.963344 1.01532 1.04813 1.05132 
1.05908 1.06604 1.06733 1.06824 1.06823 1.06567 1.05953 1.05945 1.05583 
1.05572 1.05197 1.02433 0.989909 0.989506 0.977303 0.926713 0.926719 0.928321 
0.950636 0.960237 0.972285 1.0198 1.02845 1.02877 1.02538 1.02537 1.0244 
1.02725 1.03205 1.03316 1.04104 1.04885 1.05084 1.06175 1.06267 1.06301 
1.06295 1.05076 1.01775 1.01774 1.01734 0.998588 1.03205 1.05532 1.05572 
1.05692 1.06495 1.06661 1.08158 1.08679 1.10395 1.1089 1.11874 1.11878 
1.12776 1.15513 1.19653 1.19706 1.19175 1.1903 1.16259 1.17331 1.18294 
1.18328 1.19827 1.19828 1.20076 1.20455 1.21649 1.21653 1.21914 1.20609 
1.19276 1.18968 1.18971 1.19273 1.19709 1.19953 1.18309 1.18135 1.17332 
1.14458 1.10813 1.10399 1.07108 1.06265 1.03938 1.02842 1.01812 1.01935 
1.01934 1.02457 1.04197 1.04462 1.05636 1.07577 1.07679 1.10392 1.104 
1.1145 1.11915 1.12004 1.13225 1.15533 1.16425 1.17257 1.1951 1.19725 
1.19151 1.18515 1.18515 1.18451 1.18407 1.18391 1.18523 1.18608 1.19573 
1.20114 1.20118 1.20275 1.203 1.20586 1.207 1.20557 1.21026 1.19342 
1.19189 1.18987 1.18986 1.18899 1.1912 1.19125 1.19515 1.19615 1.19789 
1.20066 1.20776 1.2079 1.21678 1.21743 1.21267 1.21444 1.21445 1.21266 
1.21153 1.20607 1.18791 1.1735 1.19791 1.20754 1.20979 1.20875 1.21489 
1.24809 1.2589 1.24712 1.2513 1.23269 1.25722 1.26978 1.30014 1.29621 
1.29517 1.29928 1.30481 1.30547 1.30554 1.32518 1.33032 1.33031 1.32952 
1.33474 1.34195 1.37862 1.38838 1.38886 1.41832 1.41833 1.42195 1.43916 
1.43914 1.47481 1.485 1.50698 1.51355 1.52498 1.51618 1.49327 1.47877 
1.47511 1.45654 1.45649 1.45244 1.45159 1.44283 1.43856 1.42423 1.407 
1.40024 1.36407 1.36305 1.37712 1.4142 1.42467 1.42587 1.43664 1.44186 
1.43855 1.41473 1.41944 1.41929 1.41777 1.41119 1.41002 1.39521 1.37718 
1.34688 1.34687 1.34414 1.32733 1.32729 1.32437 1.30548 1.29858 1.2813 
1.28132 1.28789 1.29018 1.30146 1.31032 1.31483 1.31546 1.31761 1.31876 
1.31076 1.31094 1.31258 1.30709 1.3045 1.29787 1.29785 1.29595 1.27997 
1.25413 1.22401 1.21873 1.21887 1.22595 1.22598 1.23296 1.2332 1.24628 
1.25415 1.25417 1.25639 1.26106 1.26112 1.26191 1.26297 1.2604 1.25236 
1.24508 1.23247 1.22761 1.22775 1.23782 1.26906 1.28767 1.329 1.35544 
1.35744 1.31654 1.31652 1.31248 1.30745 1.23925 1.23199 1.19437 1.19442 
1.19912 1.20124 1.21387 1.22454 1.22488 1.24593 1.24595 1.24727 1.25306 
1.25728 1.25546 1.25394 1.25144 1.24577 1.22282 1.22177 1.2225 1.22278 
1.24003 1.24036 1.24629 1.24655 1.2572 1.25724 1.26663 1.30275 1.30512 
1.33122 1.33909 1.33817 1.33618 1.31873 1.31669 1.31021 1.2717 1.27155 
1.26705 1.27184 1.31129 1.33907 1.3364 1.28268 1.2439 1.24473 1.25652 
1.26226 1.26972 1.27903 1.27474 1.28276 1.28453 1.29146 1.2915 1.29623 
1.30195 1.30195 1.30157 1.29737 1.29218 1.29096 1.29074 1.29079 1.29456 
1.2947 1.29716 1.2976 1.29775 1.29049 1.29062 1.29387 1.30233 1.30627 
1.30565 1.30543 1.32254 1.32265 1.34841 1.37639 1.38588 1.40383 1.43309 
1.43171 1.42062 1.39854 1.39395 1.34482 1.32867 1.32845 1.31755 1.32266 
1.32461 1.32628 1.39581 1.40706 1.42923 1.4324 1.43262 1.44614 1.44615 
1.4483 1.45069 1.44979 1.44666 1.44382 1.4134 1.39219 1.29657 1.28857 
1.28881 1.33805 1.3705 1.37879 1.3912 1.42191 1.42967 1.43317 1.43777 
1.43919 1.44022 1.43546 1.4312 1.42886 1.42091 1.40543 1.39067 1.37604 
1.35094 1.345 1.34142 1.35445 1.36588 1.37564 1.3816 1.41169 1.41179 
1.41594 1.42241 1.44545 1.44787 1.44723 1.44414 1.4246 1.41906 1.40509 
1.39173 1.35543 1.34336 1.3338 1.34016 1.34417 1.37874 1.39768 1.42144 
1.42509 1.4294 1.43466 1.44509 1.45037 1.45291 1.45479 1.46143 1.46194 
1.46177 1.46077 1.45547 1.43559 1.43305 1.3912 1.39118 1.39029 1.33805 
1.32804 1.31051 1.31406 1.34411 1.34431 1.35437 1.36387 1.35734 1.34994 
1.34436 1.34319 1.33852 1.33739 1.35014 1.35582 1.38323 1.37274 1.36684 
1.36483 1.34534 1.34159 1.34118 1.33495 1.32777 1.32387 1.34565 1.38447 
1.39327 1.40487 1.3979 1.39112 1.39043 1.38129 1.34241 1.34516 1.37903 
1.40776 1.41582 1.41691 1.40295 1.41319 1.41899 1.42441 1.48422 1.50744 
1.50924 1.53023 1.56316 1.60794 1.61427 1.62109 1.59452 1.60111 1.60111 
1.60259 1.61026 1.60437 1.60435 1.60203 1.57028 1.56231 1.56739 1.5676 
1.56558 1.56047 1.52026 1.51882 1.48234 1.48005 1.47942 1.46521 1.46192 
1.46577 1.4673 1.47055 1.47603 1.4781 1.50868 1.54423 1.55622 1.56466 
1.56932 1.6023 1.61661 1.62699 1.64451 1.64839 1.65978 1.66339 1.6833 
1.6928 1.69283 1.69578 1.05982 1.06021 1.07096 1.12877 1.13615 1.20914 
1.27173 1.3457 1.3733 1.37738 1.43173 1.45533 1.45659 1.4576 1.45761 
1.45923 1.45877 1.45874 1.45061 1.45049 1.44804 1.44797 1.44694 1.43731 
1.43317 1.42025 1.42005 1.41736 1.4186 1.40247 1.37768 1.37774 1.38245 
1.38106 1.39341 1.39639 1.39884 1.38535 1.37739 1.37666 1.3777 1.37814 
1.37775 1.37418 1.36426 1.36426 1.36272 1.33529 1.33514 1.3201 1.30894 
1.24195 1.23522 1.23523 1.23586 1.25816 1.28803 1.29267 1.2927 1.29992 
1.30019 1.3168 1.32144 1.32508 1.34592 1.35532 1.3577 1.36233 1.37136 
1.37206 1.3706 1.37048 1.37018 1.36439 1.35752 1.35328 1.3497 1.32515 
1.32543 1.32484 1.3262 1.32619 1.32555 1.33261 1.33663 1.3367 1.33789 
1.34825 1.35164 1.35291 1.35419 1.35427 1.35428 1.35462 1.36131 1.36352 
1.36937 1.37566 1.37571 1.38774 1.38854 1.39234 1.39481 1.39314 1.36576 
1.34671 1.31452 1.31443 1.26692 1.25573 1.25569 1.25011 1.24489 1.26043 
1.261 1.27173 1.28446 1.32082 1.34745 1.35793 1.40381 1.40833 1.43462 
1.43467 1.44663 1.45514 1.4561 1.45172 1.4516 1.41141 1.3843 1.34207 
1.34201 1.38179 1.40487 1.45425 1.44128 1.43045 1.39261 1.37389 1.37261 
1.38651 1.40138 1.40505 1.40885 1.40883 1.40687 1.40252 1.39196 1.37922 
1.37876 1.33911 1.22823 1.25154 1.25803 1.27906 1.2803 1.33573 1.31236 
1.22781 1.23375 1.23283 1.2234 1.20979 1.2018 1.19613 1.20125 1.20435 
1.21387 1.22258 1.22658 1.22847 1.21795 1.23006 1.23024 1.25246 1.25282 
1.27235 1.27685 1.27764 1.27887 1.27889 1.28348 1.25656 1.25643 1.24564 
1.2456 1.23752 1.23168 1.20136 1.20153 1.21238 1.2147 1.22013 1.22147 
1.24801 1.2543 1.25587 1.25773 1.25243 1.23283 1.23282 1.23241 1.2293 
1.22916 1.19448 1.18422 1.18403 1.16836 1.16863 1.1556 1.17888 1.1791 
1.18791 1.18797 1.19563 1.19298 1.19274 1.1918 1.19985 1.20027 1.20748 
1.21345 1.21636 1.22462 1.22657 1.22459 1.20556 1.21163 1.21234 1.22345 
1.2191 1.21769 1.21807 1.22043 1.20362 1.20155 1.18048 1.18566 1.18694 
1.1895 1.19128 1.1815 1.15894 1.15974 1.16317 1.18457 1.19608 1.19613 
1.19777 1.19563 1.19653 1.18764 1.19294 1.19459 1.19459 1.19467 1.19386 
1.19018 1.18395 1.18395 1.18377 1.18077 1.18559 1.1992 1.2003 1.2035 
1.20318 1.19338 1.19149 1.18963 1.18246 1.18288 1.17964 1.1811 1.17475 
1.18598 1.18849 1.19443 1.20339 1.2035 1.21784 1.21809 1.24896 1.26211 
1.29158 1.29972 1.32773 1.33128 1.37076 1.37424 1.40308 1.40486 1.40486 
1.40472 1.39417 1.38446 1.37195 1.3646 1.36476 1.3686 1.36826 1.38497 
1.3759 1.35909 1.36666 1.36723 1.40188 1.40802 1.43577 1.42524 1.41445 
1.37633 1.32759 1.32797 1.32969 1.32557 1.34994 1.36695 1.36701 1.38277 
1.38438 1.41358 1.41364 1.42732 1.42954 1.47796 1.48328 1.48755 1.48593 
1.47971 1.47634 1.47633 1.47403 1.45508 1.44558 1.43636 1.43168 1.43084 
1.43952 1.45004 1.45714 1.45837 1.4763 1.48921 1.48924 1.49104 1.49138 
1.50836 1.50981 1.5687 1.56895 1.59936 1.60258 1.6126 1.61743 1.61996 
1.61994 1.61911 1.60075 1.59003 1.57513 1.52392 1.51689 1.51746 1.46208 
1.44626 1.44224 1.44523 1.44886 1.44838 1.44665 1.44615 1.44092 1.42928 
1.41128 1.39074 1.37614 1.36075 1.31474 1.31468 1.29909 1.29891 1.29263 
1.24419 1.18869 1.10972 1.07632 1.07571 1.07453 1.05516 1.05516 1.05513 
1.04466 0.98903 0.951458 0.951357 0.947258 0.900199 0.894687 0.894725 0.904213 
0.974741 0.999148 1.02439 1.05426 1.06389 1.10219 1.16271 1.20519 1.25429 
1.25708 1.26316 1.26357 1.26189 1.27071 1.27315 1.2732 1.27899 1.28124 
1.29919 1.31535 1.35265 1.35283 1.3976 1.42579 1.45183 1.50424 1.51262 
1.51336 1.51344 1.51998 1.51203 1.49026 1.47548 1.44046 1.24335 1.2424 
1.19883 1.22052 1.23143 1.2522 1.25948 1.26661 1.29082 1.303 1.30334 
1.31767 1.31259 1.30885 1.29007 1.21065 1.19595 1.19815 1.20055 1.21868 
1.25361 1.25819 1.25808 1.27661 1.28322 1.32693 1.3332 1.33373 1.36657 
1.39949 1.4857 1.48648 1.50672 1.54528 1.54553 1.55438 1.55462 1.5742 
1.59578 1.60189 1.60467 1.61353 1.6146 1.61755 1.61881 1.62257 1.62235 
1.62438 1.62438 1.62424 1.62104 1.61731 1.61662 1.61655 1.58719 1.55811 
1.5592 1.56012 1.56065 1.56066 1.56225 1.56238 1.59497 1.59627 1.60622 
1.61497 1.63157 1.64862 1.68534 1.70305 1.69662 1.71056 1.72065 1.73785 
1.7563 1.75364 1.74407 1.73681 1.73502 1.62106 1.55761 1.5131 1.51485 
1.51714 1.46243 1.46255 1.46415 1.46298 1.51638 1.49044 1.48735 1.46734 
1.45883 1.45106 1.44298 1.43275 1.4169 1.36464 1.24432 1.24435 1.25238 
1.25969 1.31518 1.35773 1.36893 1.41479 1.4172 1.50861 1.51601 1.5161 
1.52768 1.52771 1.53333 1.53361 1.59873 1.62882 1.63654 1.68661 1.64996 
1.64496 1.63886 1.63887 1.6391 1.6581 1.65553 1.61963 1.63375 1.62979 
1.61948 1.60832 1.56065 1.55737 1.52759 1.48331 1.47986 1.47856 1.47017 
1.46842 1.46174 1.45719 1.3845 1.24797 1.27817 1.31116 1.33613 1.34613 
1.33621 1.32621 1.30283 1.29568 1.18283 1.20017 1.21437 1.17911 1.17917 
1.18622 1.18636 1.22174 1.22237 1.21626 1.17556 1.17156 1.10719 1.13662 
1.18265 1.20451 1.23595 1.2373 1.235 1.23113 1.22074 1.20063 1.19944 
1.17797 1.22271 1.28097 1.31004 1.3257 1.35468 1.35601 1.35494 1.34298 
1.34369 1.34723 1.36713 1.36718 1.3676 1.36676 1.35134 1.34426 1.32521 
1.2766 1.2674 1.28053 1.28055 1.28659 1.28689 1.2988 1.30939 1.31116 
1.30948 1.30651 1.30533 1.29365 1.29355 1.29256 1.2898 1.28454 1.28434 
1.26584 1.24117 1.28719 1.2876 1.29844 1.33622 1.33626 1.33653 1.33664 
1.32575 1.3258 1.36231 1.37877 1.38001 1.38701 1.37028 1.33811 1.33449 
1.33765 1.3361 1.33436 1.33438 1.33509 1.34967 1.36363 1.40386 1.41269 
1.45671 1.46428 1.49261 1.50949 1.51189 1.51189 1.51061 1.50886 1.50398 
1.501 1.48873 1.4762 1.42469 1.42146 1.41686 1.41691 1.42923 1.45333 
1.45373 1.46321 1.46323 1.46952 1.50001 1.5022 1.50735 1.51196 1.51195 
1.50991 1.50563 1.50551 1.50378 1.49047 1.48631 1.48304 1.48109 1.48079 
1.46655 1.46657 1.46841 1.47221 1.47229 1.47932 1.47943 1.48549 1.49071 
1.48987 1.49146 1.49104 1.48039 1.48059 1.47948 1.47909 1.47848 1.47563 
1.47559 1.47655 1.47888 1.47884 1.48395 1.4843 1.48427 1.48494 1.48493 
1.48584 1.48515 1.48541 1.48485 1.48553 1.48607 1.48608 1.48611 1.48782 
1.48774 1.47986 1.48204 1.48166 1.48192 1.48455 1.48457 1.48509 1.48147 
1.47502 1.46317 1.45146 1.44372 1.44307 1.43259 1.38636 1.3355 1.32014 
1.33731 1.35176 1.40147 1.4017 1.429 1.46476 1.47821 1.48713 1.48899 
1.49355 1.48469 1.47443 1.42536 1.42026 1.39542 1.36763 1.36606 1.35801 
1.35058 1.25644 1.27368 1.37076 1.37577 1.40117 1.39297 1.39631 1.40375 
1.39537 1.2608 1.25855 1.30521 1.30737 1.32601 1.33926 1.37893 1.37473 
1.3747 1.36913 1.36479 1.33591 1.31868 1.32445 1.31643 1.3155 1.29939 
1.29062 1.29451 1.28624 1.27354 1.27169 1.25434 1.25411 1.25029 1.23416 
1.22395 1.22091 1.21769 1.22831 1.23591 1.24293 1.25491 1.26779 1.26748 
1.26771 1.2688 1.26701 1.26406 1.25555 1.25337 1.23886 1.23533 1.2342 
1.23438 1.22581 1.2259 1.24231 1.25666 1.27061 1.27067 1.27799 1.28621 
1.30595 1.31835 1.35901 1.36255 1.36956 1.3696 1.37145 1.40338 1.42479 
1.43751 1.43048 1.42197 1.40143 1.39965 1.39883 1.39521 1.39194 1.38746 
1.38763 1.39798 1.40738 1.40168 1.39225 1.37504 1.37462 1.38452 1.38631 
1.38243 1.37984 1.40455 1.41248 1.45159 1.44937 1.44932 1.40333 1.38844 
1.38088 1.3725 1.33671 1.31111 1.3111 1.31069 1.19137 1.17589 1.08186 
1.04593 1.02156 1.02992 1.03 1.03666 1.04263 1.0518 1.05354 1.0509 
1.04034 1.03735 1.03609 1.03021 1.01784 1.0164 1.01039 1.00094 0.994624 
0.99371 0.986799 0.961264 0.961255 0.960725 0.953634 0.946352 0.914493 0.914311 
0.923546 0.947465 0.985065 1.04735 1.09148 1.11019 1.12479 1.13063 1.13194 
1.16349 1.16538 1.18595 1.18617 1.24047 1.24605 1.25804 1.28343 1.33673 
1.37508 1.39053 1.41668 1.41679 1.42945 1.43321 1.43975 1.44443 1.42326 
1.40929 1.40913 1.40284 1.3719 1.3719 1.36969 1.37234 1.38115 1.39574 
1.39577 1.40452 1.45026 1.45031 1.463 1.46312 1.47304 1.48487 1.48662 
1.49179 1.50353 1.50913 1.51177 1.51187 1.48142 1.48162 1.51141 1.52285 
1.52821 1.53466 1.53476 1.54701 1.56277 1.5634 1.58517 1.63249 1.61262 
1.46957 1.46902 1.45892 1.46375 1.46605 1.47012 1.42179 1.3989 1.3245 
1.32209 1.28575 1.21631 1.21283 1.20732 1.21557 1.21945 1.24157 1.24638 
1.24785 1.26293 1.26554 1.2753 1.27968 1.29381 1.2974 1.32918 1.3339 
1.35208 1.36602 1.36521 1.35202 1.36235 1.3692 1.36941 1.37567 1.37581 
1.40996 1.41005 1.4215 1.42154 1.42635 1.4543 1.45656 1.4632 1.46368 
1.47902 1.47537 1.47476 1.42318 1.41682 1.38715 1.39043 1.3633 1.36252 
1.36091 1.37952 1.37173 1.37546 1.38508 1.37679 1.37168 1.37309 1.39769 
1.40029 1.43227 1.45719 1.45834 1.48587 1.5034 1.5045 1.50471 1.50472 
1.50552 1.5056 1.49042 1.48373 1.40881 1.39394 1.31708 1.3185 1.37089 